
                                 *****************
                                 * O   R   C   A *
                                 *****************

                                            #,                                       
                                            ###                                      
                                            ####                                     
                                            #####                                    
                                            ######                                   
                                           ########,                                 
                                     ,,################,,,,,                         
                               ,,#################################,,                 
                          ,,##########################################,,             
                       ,#########################################, ''#####,          
                    ,#############################################,,   '####,        
                  ,##################################################,,,,####,       
                ,###########''''           ''''###############################       
              ,#####''   ,,,,##########,,,,          '''####'''          '####       
            ,##' ,,,,###########################,,,                        '##       
           ' ,,###''''                  '''############,,,                           
         ,,##''                                '''############,,,,        ,,,,,,###''
      ,#''                                            '''#######################'''  
     '                                                          ''''####''''         
             ,#######,   #######,   ,#######,      ##                                
            ,#'     '#,  ##    ##  ,#'     '#,    #''#        ,####,   ,####,        
            ##       ##  ##   ,#'  ##            #'  '#       #'       #'  '#        
            ##       ##  #######   ##           ,######,      #####,   #    #        
            '#,     ,#'  ##    ##  '#,     ,#' ,#      #,     #,   #   #,  ,#        
             '#######'   ##     ##  '#######'  #'      '#     '####' # '####'        



                #########################################################
                #                        -***-                          #
                #          Department of theory and spectroscopy        #
                #                                                       #
                #                      Frank Neese                      #
                #                                                       #
                #     Directorship, Architecture, Infrastructure        #
                #                    SHARK, DRIVERS                     #
                #        Core code/Algorithms in most modules           #
                #                                                       #
                #        Max Planck Institute fuer Kohlenforschung      #
                #                Kaiser Wilhelm Platz 1                 #
                #                 D-45470 Muelheim/Ruhr                 #
                #                      Germany                          #
                #                                                       #
                #                  All rights reserved                  #
                #                        -***-                          #
                #########################################################


                         Program Version 6.0.1  -  RELEASE   -


 With contributions from (in alphabetic order):
[Max-Planck-Institut fuer Kohlenforschung]                               
  Daniel Aravena         : Magnetic Suceptibility                        
  Michael Atanasov       : Ab Initio Ligand Field Theory (pilot matlab implementation)
  Alexander A. Auer      : GIAO ZORA, VPT2 properties, NMR spectrum      
  Ute Becker             : All parallelization in ORCA, NUMFREQ, NUMCALC 
  Giovanni Bistoni       : ED, misc. LED, open-shell LED, HFLD           
  Martin Brehm           : Molecular dynamics                            
  Dmytro Bykov           : pre 5.0 version of the SCF Hessian            
  Marcos Casanova-Páez   : Triplet and SCS-CIS(D). UHF-(DLPNO)-IP/EA/STEOM-CCSD. UHF-CVS-IP/STEOM-CCSD   
  Vijay G. Chilkuri      : MRCI spin determinant printing, contributions to CSF-ICE 
  Pauline Colinet        : FMM embedding                                 
  Dipayan Datta          : RHF DLPNO-CCSD density                        
  Achintya Kumar Dutta   : EOM-CC, STEOM-CC                              
  Nicolas Foglia         : Exact transition moments, OPA infrastructure, MCD improvements    
  Dmitry Ganyushin       : Spin-Orbit,Spin-Spin,Magnetic field MRCI      
  Miquel Garcia-Rates    : C-PCM and meta-GGA Hessian, CCSD/C-PCM, Gaussian charge scheme 
  Tiago L. C. Gouveia    : GS-ROHF, GS-ROCIS                             
  Yang Guo               : DLPNO-NEVPT2, F12-NEVPT2, CIM, IAO-localization        
  Andreas Hansen         : Spin unrestricted coupled pair/coupled cluster methods 
  Ingolf Harden          : AUTO-CI MPn and infrastructure                
  Benjamin Helmich-Paris : MC-RPA, TRAH-(SCF,CASSCF), AVAS, COSX integrals, SCF dyn. polar. 
  Lee Huntington         : MR-EOM, pCC                                   
  Robert Izsak           : Overlap fitted RIJCOSX, COSX-SCS-MP3, EOM     
  Riya Kayal             : Wick's Theorem for AUTO-CI, AUTO-CI UHF-CCSDT 
  Emily Kempfer          : AUTO-CI, RHF CISDT and CCSDT                  
  Christian Kollmar      : KDIIS, OOCD, Brueckner-CCSD(T), CCSD density, CASPT2, CASPT2-K, improved NEVPT2 
  Axel Koslowski         : Symmetry handling                             
  Simone Kossmann        : meta-GGA functionals, TD-DFT gradient, OOMP2, (MP2 Hessian; deprecated post 5.0) 
  Lucas Lang             : DCDCAS                                        
  Marvin Lechner         : AUTO-CI (C++ implementation), FIC-MRCC        
  Spencer Leger          : CASSCF response                               
  Dagmar Lenk            : GEPOL surface, SMD, ORCA-2-JSON               
  Dimitrios Liakos       : Extrapolation schemes; Compound Job, initial MDCI parallelization 
  Dimitrios Manganas     : Further ROCIS development; embedding schemes. LFT, Crystal Embedding 
  Dimitrios Pantazis     : SARC Basis sets                               
  Anastasios Papadopoulos: AUTO-CI, single reference methods and gradients 
  Taras Petrenko         : pre 6.0 DFT Hessian and TD-DFT gradient, (ASA, deprecated), ECA, 1-Electron XAS/XES, NRVS 
  Peter Pinski           : DLPNO-MP2, DLPNO-MP2 Gradient                 
  Christoph Reimann      : Effective Core Potentials                     
  Marius Retegan         : Local ZFS, SOC                                
  Christoph Riplinger    : Optimizer, TS searches, QM/MM, DLPNO-CCSD(T), (RO)-DLPNO pert. Triples 
  Michael Roemelt        : Original ROCIS implementation                 
  Masaaki Saitow         : Open-shell DLPNO-CCSD energy and density      
  Barbara Sandhoefer     : DKH picture change effects                    
  Kantharuban Sivalingam : CASSCF convergence/infrastructure, NEVPT2 and variants, FIC-MRCI 
  Bernardo de Souza      : ESD, SOC TD-DFT                               
  Georgi L. Stoychev     : AutoAux, RI-MP2 NMR, DLPNO-MP2 response, X2C  
  Van Anh Tran           : RI-MP2 g-tensors                              
  Willem Van den Heuvel  : Paramagnetic NMR                              
  Zikuan Wang            : NOTCH, Electric field optimization            
  Frank Wennmohs         : Technical directorship and infrastructure     
  Hang Xu                : AUTO-CI-Response properties                   
                                                                         
[FACCTs GmbH]                                                            
  Markus Bursch, Miquel Garcia-Rates, Christoph Riplinger, Bernardo de Souza, Georgi L. Stoychev 
                                                                 
  APM, Basis sets (HGBS, AHGBS, def-TZVP (Ac-Lr), def2-XVPD (La-Lu)), CI-OPT, improved COSX, DLPNO-Multilevel,           
  DOCKER, DRACO, updates on ESD, GOAT, IRC, LR-CPCM, MBIS, meta-GGA TD-DFT gradient, ML-optimized integration grids, 
  MM, NACMEs, nearIR, NEB, NEB-TS, NL-DFT gradient (VV10), 2- and 3-layer-ONIOM, interface openCOSMO-RS, QMMM,   
  Crystal-QMMM, SF, symmetry and pop. for TD-DFT, r2SCAN hybrids, SOLVATOR                                   
                                                                         
[Other institutions]                                                     
  V. Asgeirsson          : NEB                                           
  Christoph Bannwarth    : sTDA-DFT, sTD-DFT, PBEh-3c, B97-3c, D3        
  Sebastian Ehlert       : rSCAN, r2SCAN, r2SCAN-3c, D4, dhf basis sets  
  Marvin Friede          : D4 for Fr, Ra, Ac-Lr                          
  Lars Goerigk           : TD-DFT with DH, B97 family of functionals     
  Stefan Grimme          : VdW corrections, initial TS optimization, DFT functionals, gCP, sTDA/sTD-DF 
  Waldemar Hujo          : DFT-NL                                        
  H. Jonsson             : NEB                                           
  Holger Kruse           : gCP                                           
  Marcel Mueller         : wB97X-3c, vDZP basis set                      
  Hagen Neugebauer       : wr2SCAN                                       
  Tobias Risthaus        : range-separated hybrid DFT                    
  Lukas Wittmann         : regularized MP2, r2SCAN double-hybrids, wr2SCAN        
                                                                         
We gratefully acknowledge several colleagues who have allowed us to      
interface, adapt or use parts of their codes:                            
  Ed Valeev, F. Pavosevic, A. Kumar             : LibInt (2-el integral package), F12 methods 
  Garnet Chan, S. Sharma, J. Yang, R. Olivares  : DMRG                   
  Ulf Ekstrom                                   : XCFun DFT Library      
  Mihaly Kallay                                 : mrcc  (arbitrary order and MRCC methods)
  Frank Weinhold                                : gennbo (NPA and NBO analysis)           
  Simon Mueller                                 : openCOSMO-RS                            
  Christopher J. Cramer and Donald G. Truhlar   : smd solvation model                     
  S Lehtola, MJT Oliveira, MAL Marques          : LibXC Library                           
  Liviu Ungur et al                             : ANISO software                          


 Your calculation uses the libint2 library for the computation of 2-el integrals
 For citations please refer to: http://libint.valeyev.net

 Your ORCA version has been built with support for libXC version: 6.2.2
 For citations please refer to: https://libxc.gitlab.io

 This ORCA versions uses:
   CBLAS   interface :  Fast vector & matrix operations
   LAPACKE interface :  Fast linear algebra routines
   SCALAPACK package :  Parallel linear algebra routines
   Shared memory     :  Shared parallel matrices
   BLAS/LAPACK       :  OpenBLAS 0.3.27  USE64BITINT DYNAMIC_ARCH NO_AFFINITY SkylakeX SINGLE_THREADED
        Core in use  :  SkylakeX
   Copyright (c) 2011-2014, The OpenBLAS Project


NOTE: MaxCore=4000 MB was set to SCF,MP2,MDCI,CIPSI,MRCI and CIS
      => If you want to overwrite this, your respective input block should be placed after the MaxCore statement


***************************************
The coordinates will be read from file: 32-T1-0.xyz
***************************************


Your calculation utilizes the atom-pairwise dispersion correction
with the zero-damping scheme (D30)


XCFun DFT library Copyright 2009-2010 Ulf Ekstrom and contributors.
See http://admol.org/xcfun for more information.
This is free software; see the source code for copying conditions.
There is ABSOLUTELY NO WARRANTY; not even for MERCHANTABILITY or FITNESS FOR A PARTICULAR PURPOSE.
For details see the documentation.
Scientific users of this library should cite U. Ekstrom, L. Visscher, R. Bast, A. J. Thorvaldsen and K. Ruud;
J.Chem.Theor.Comp. 2010, DOI: 10.1021/ct100117s
XCFun Version 0.99 

Warning: RI is on but no J-basis has been assigned. Assigning Def2/J (nothing to worry about!)
================================================================================

----- Orbital basis set information -----
Your calculation utilizes the basis: def2-TZVP
   F. Weigend and R. Ahlrichs, Phys. Chem. Chem. Phys. 7, 3297 (2005).

----- AuxJ basis set information -----
Your calculation utilizes the auxiliary basis: def2/J
   F. Weigend, Phys. Chem. Chem. Phys. 8, 1057 (2006).

================================================================================
                                        WARNINGS
                       Please study these warnings very carefully!
================================================================================


WARNING: your system is open-shell and RHF/RKS was chosen
  ===> : WILL SWITCH to UHF/UKS


WARNING: Geometry Optimization
  ===> : Switching off AutoStart
         For restart on a previous wavefunction, please use MOREAD

================================================================================
                                       INPUT FILE
================================================================================
NAME = 32-T1-0.inp
|  1> !wB97X-D3 DEF2-TZVP OPT FREQ TIGHTSCF CPCM(dichloromethane) 
|  2> % pal nprocs 5 end 
|  3> % maxcore 4000  
|  4> %scf
|  5> MaxIter 300  
|  6> end 
|  7> * xyzfile 0 3 32-T1-0.xyz
|  8> 
|  9> 
| 10> 
| 11>                          ****END OF INPUT****
================================================================================

                       *****************************
                       * Geometry Optimization Run *
                       *****************************

Geometry optimization settings:
Update method            Update   .... BFGS
Choice of coordinates    CoordSys .... (2022) Redundant Internals
Initial Hessian          InHess   .... Almloef's Model
Max. no of cycles        MaxIter  .... 90

Convergence Tolerances:
Energy Change            TolE     ....  5.0000e-06 Eh
Max. Gradient            TolMAXG  ....  3.0000e-04 Eh/bohr
RMS Gradient             TolRMSG  ....  1.0000e-04 Eh/bohr
Max. Displacement        TolMAXD  ....  4.0000e-03 bohr
RMS Displacement         TolRMSD  ....  2.0000e-03 bohr
Strict Convergence                .... False

------------------------------------------------------------------------------
                        ORCA OPTIMIZATION COORDINATE SETUP
------------------------------------------------------------------------------

The optimization will be done in redundant internal coordinates (2022)
Making redundant internal coordinates   ...  (2022 redundants) done
Evaluating the initial hessian          ...  (Almloef) done
Evaluating the coordinates              ...  done
Calculating the B-matrix                .... done
Calculating the G-matrix                .... done
Diagonalizing the G-matrix              .... done
Small eigenvalue found = 3.166e-03
Small eigenvalue found = 6.322e-03
Small eigenvalue found = 1.440e-02
Small eigenvalue found = 2.834e-02
The first mode is                       ....   54
The number of degrees of freedom        ....   84

    -----------------------------------------------------------------
                    Redundant Internal Coordinates


    -----------------------------------------------------------------
         Definition                    Initial Value    Approx d2E/dq
    -----------------------------------------------------------------
      1. B(C   1,C   0)                  1.4064         0.588291   
      2. B(C   2,C   0)                  1.4170         0.565720   
      3. B(C   3,C   1)                  1.3963         0.610496   
      4. B(C   4,C   3)                  1.3946         0.614433   
      5. B(C   5,C   4)                  1.3959         0.611470   
      6. B(C   5,C   2)                  1.4031         0.595472   
      7. B(H   6,C   4)                  1.0823         0.370383   
      8. B(H   7,C   5)                  1.0834         0.368879   
      9. B(H   8,C   1)                  1.0830         0.369527   
     10. B(H   9,C   3)                  1.0824         0.370342   
     11. B(C  10,C   0)                  1.5063         0.407501   
     12. B(C  11,C   2)                  1.4783         0.451688   
     13. B(N  12,C  11)                  1.2928         0.799645   
     14. B(H  13,C  11)                  1.0848         0.367073   
     15. B(Si 14,N  12)                  1.7978         0.543798   
     16. B(H  15,C  10)                  1.1101         0.334468   
     17. B(H  16,C  10)                  1.1020         0.344602   
     18. B(H  17,C  10)                  1.1107         0.333724   
     19. B(C  18,Si 14)                  1.8667         0.471299   
     20. B(C  19,Si 14)                  1.8741         0.458773   
     21. B(C  20,Si 14)                  1.8699         0.465791   
     22. B(H  21,C  18)                  1.1094         0.335385   
     23. B(H  22,C  18)                  1.1094         0.335376   
     24. B(H  23,C  18)                  1.1093         0.335451   
     25. B(H  24,C  19)                  1.1092         0.335636   
     26. B(H  25,C  19)                  1.1043         0.341639   
     27. B(H  26,C  19)                  1.1091         0.335647   
     28. B(H  27,C  20)                  1.1092         0.335515   
     29. B(H  28,C  20)                  1.1093         0.335466   
     30. B(H  29,C  20)                  1.1072         0.338112   
     31. A(C   1,C   0,C   2)          119.1773         0.422992   
     32. A(C   2,C   0,C  10)          121.6042         0.396357   
     33. A(C   1,C   0,C  10)          119.1891         0.399091   
     34. A(C   0,C   1,H   8)          120.6144         0.351321   
     35. A(C   3,C   1,H   8)          118.8222         0.353530   
     36. A(C   0,C   1,C   3)          120.5600         0.428800   
     37. A(C   5,C   2,C  11)          118.0095         0.407274   
     38. A(C   0,C   2,C   5)          119.5187         0.423910   
     39. A(C   0,C   2,C  11)          122.4031         0.403603   
     40. A(C   1,C   3,C   4)          120.1039         0.432160   
     41. A(C   1,C   3,H   9)          119.9641         0.353662   
     42. A(C   4,C   3,H   9)          119.9270         0.354048   
     43. A(C   3,C   4,H   6)          119.9551         0.354054   
     44. A(C   3,C   4,C   5)          120.0722         0.432284   
     45. A(C   5,C   4,H   6)          119.9725         0.353765   
     46. A(C   2,C   5,C   4)          120.5267         0.429857   
     47. A(C   4,C   5,H   7)          119.1488         0.353521   
     48. A(C   2,C   5,H   7)          120.3194         0.351938   
     49. A(H  16,C  10,H  17)          107.7065         0.285429   
     50. A(C   0,C  10,H  17)          111.7486         0.324898   
     51. A(H  15,C  10,H  16)          108.8089         0.285528   
     52. A(C   0,C  10,H  16)          110.9170         0.326617   
     53. A(C   0,C  10,H  15)          109.4793         0.325017   
     54. A(H  15,C  10,H  17)          108.0874         0.284106   
     55. A(N  12,C  11,H  13)          117.1366         0.367460   
     56. A(C   2,C  11,H  13)          116.9302         0.335721   
     57. A(C   2,C  11,N  12)          125.4205         0.426436   
     58. A(C  11,N  12,Si 14)          130.9451         0.474221   
     59. A(C  18,Si 14,C  19)          106.2115         0.456772   
     60. A(N  12,Si 14,C  19)          116.1654         0.466399   
     61. A(N  12,Si 14,C  18)          106.7072         0.468707   
     62. A(C  19,Si 14,C  20)          109.8366         0.455795   
     63. A(C  18,Si 14,C  20)          107.5750         0.458038   
     64. A(N  12,Si 14,C  20)          109.9134         0.467698   
     65. A(H  22,C  18,H  23)          109.4610         0.284454   
     66. A(H  21,C  18,H  23)          109.4752         0.284455   
     67. A(Si 14,C  18,H  23)          109.4733         0.357935   
     68. A(H  21,C  18,H  22)          109.4844         0.284445   
     69. A(Si 14,C  18,H  22)          109.5224         0.357921   
     70. A(Si 14,C  18,H  21)          109.4110         0.357923   
     71. A(H  25,C  19,H  26)          107.6247         0.285300   
     72. A(H  24,C  19,H  26)          108.9289         0.284514   
     73. A(Si 14,C  19,H  26)          108.5409         0.356335   
     74. A(H  24,C  19,H  25)          110.2900         0.285299   
     75. A(Si 14,C  19,H  25)          111.5513         0.357408   
     76. A(Si 14,C  19,H  24)          109.8278         0.356333   
     77. A(H  28,C  20,H  29)          109.1067         0.284816   
     78. A(H  27,C  20,H  29)          109.1836         0.284822   
     79. A(Si 14,C  20,H  29)          110.7566         0.357700   
     80. A(H  27,C  20,H  28)          109.2889         0.284474   
     81. A(Si 14,C  20,H  28)          109.2306         0.357223   
     82. A(Si 14,C  20,H  27)          109.2538         0.357231   
     83. D(H   8,C   1,C   0,C   2)    179.9412         0.023810   
     84. D(H   8,C   1,C   0,C  10)     -1.9965         0.023810   
     85. D(C   3,C   1,C   0,C  10)    177.3309         0.023810   
     86. D(C   3,C   1,C   0,C   2)     -0.7314         0.023810   
     87. D(C   5,C   2,C   0,C   1)      2.1885         0.021940   
     88. D(C   5,C   2,C   0,C  10)   -175.8252         0.021940   
     89. D(C  11,C   2,C   0,C   1)    179.1126         0.021940   
     90. D(C  11,C   2,C   0,C  10)      1.0989         0.021940   
     91. D(C   4,C   3,C   1,H   8)    178.6638         0.025743   
     92. D(H   9,C   3,C   1,C   0)   -179.8578         0.025743   
     93. D(H   9,C   3,C   1,H   8)     -0.5185         0.025743   
     94. D(C   4,C   3,C   1,C   0)     -0.6755         0.025743   
     95. D(H   6,C   4,C   3,C   1)   -179.2672         0.026096   
     96. D(C   5,C   4,C   3,H   9)    179.7977         0.026096   
     97. D(C   5,C   4,C   3,C   1)      0.6151         0.026096   
     98. D(H   6,C   4,C   3,H   9)     -0.0845         0.026096   
     99. D(H   7,C   5,C   4,H   6)     -0.0716         0.025830   
    100. D(C   2,C   5,C   4,H   6)   -179.2451         0.025830   
    101. D(C   2,C   5,C   4,C   3)      0.8727         0.025830   
    102. D(H   7,C   5,C   2,C  11)      1.5021         0.024425   
    103. D(H   7,C   5,C   2,C   0)    178.5607         0.024425   
    104. D(H   7,C   5,C   4,C   3)   -179.9538         0.025830   
    105. D(C   4,C   5,C   2,C  11)   -179.3341         0.024425   
    106. D(C   4,C   5,C   2,C   0)     -2.2755         0.024425   
    107. D(H  17,C  10,C   0,C   1)      0.6381         0.012305   
    108. D(H  16,C  10,C   0,C   2)    -61.1482         0.012305   
    109. D(H  16,C  10,C   0,C   1)    120.8384         0.012305   
    110. D(H  15,C  10,C   0,C   2)     58.9381         0.012305   
    111. D(H  15,C  10,C   0,C   1)   -119.0753         0.012305   
    112. D(N  12,C  11,C   2,C   5)   -109.3383         0.013906   
    113. D(N  12,C  11,C   2,C   0)     73.6934         0.013906   
    114. D(H  13,C  11,C   2,C   5)     62.1810         0.013906   
    115. D(H  13,C  11,C   2,C   0)   -114.7873         0.013906   
    116. D(Si 14,N  12,C  11,H  13)   -169.4840         0.049277   
    117. D(Si 14,N  12,C  11,C   2)      2.0197         0.049277   
    118. D(C  20,Si 14,N  12,C  11)   -122.1823         0.004647   
    119. D(C  19,Si 14,N  12,C  11)      3.2760         0.004647   
    120. D(C  18,Si 14,N  12,C  11)    121.4556         0.004647   
    121. D(H  22,C  18,Si 14,C  20)     59.8727         0.003929   
    122. D(H  22,C  18,Si 14,C  19)    -57.6942         0.003929   
    123. D(H  22,C  18,Si 14,N  12)    177.7833         0.003929   
    124. D(H  21,C  18,Si 14,C  20)    179.8834         0.003929   
    125. D(H  21,C  18,Si 14,C  19)     62.3165         0.003929   
    126. D(H  21,C  18,Si 14,N  12)    -62.2061         0.003929   
    127. D(H  25,C  19,Si 14,C  20)     58.1882         0.003799   
    128. D(H  25,C  19,Si 14,C  18)    174.2396         0.003799   
    129. D(H  25,C  19,Si 14,N  12)    -67.3091         0.003799   
    130. D(H  24,C  19,Si 14,C  20)   -179.2140         0.003799   
    131. D(H  24,C  19,Si 14,C  18)    -63.1626         0.003799   
    132. D(H  24,C  19,Si 14,N  12)     55.2888         0.003799   
    133. D(H  28,C  20,Si 14,C  19)     55.7477         0.003872   
    134. D(H  28,C  20,Si 14,C  18)    -59.4402         0.003872   
    135. D(H  28,C  20,Si 14,N  12)   -175.2557         0.003872   
    136. D(H  27,C  20,Si 14,C  19)    175.2478         0.003872   
    137. D(H  27,C  20,Si 14,C  18)     60.0599         0.003872   
    138. D(H  27,C  20,Si 14,N  12)    -55.7556         0.003872   
    -----------------------------------------------------------------

Number of atoms                         .... 30
Number of degrees of freedom            .... 138


         *************************************************************
         *                GEOMETRY OPTIMIZATION CYCLE   1            *
         *************************************************************
---------------------------------
CARTESIAN COORDINATES (ANGSTROEM)
---------------------------------
  C      0.653600    0.783470    0.523440
  C      1.907660    0.779690   -0.113150
  C     -0.191460   -0.346350    0.391620
  C      2.324460   -0.328100   -0.853920
  C      1.502560   -1.449980   -0.957090
  C      0.255290   -1.463300   -0.330520
  H      1.833090   -2.311960   -1.522060
  H     -0.370780   -2.343020   -0.419840
  H      2.571590    1.631090   -0.028710
  H      3.292530   -0.321570   -1.337980
  C      0.260230    1.969640    1.364460
  C     -1.514880   -0.426350    1.045510
  N     -2.573200    0.217950    0.676380
  H     -1.638720   -1.182850    1.813050
  Si    -2.848950    1.339950   -0.700990
  H      0.090160    1.641220    2.411140
  H     -0.663810    2.433290    0.982980
  H      1.051240    2.749330    1.371900
  C     -4.229430    0.607300   -1.721890
  C     -1.405150    1.582780   -1.870880
  C     -3.435730    2.997480   -0.064610
  H     -3.911820   -0.379240   -2.117530
  H     -4.466100    1.286060   -2.566850
  H     -5.130360    0.478750   -1.087580
  H     -1.066320    0.600650   -2.259250
  H     -0.568420    2.109330   -1.378780
  H     -1.742210    2.209310   -2.721790
  H     -4.342190    2.850360    0.557580
  H     -3.684150    3.652070   -0.925030
  H     -2.650450    3.483760    0.545840

----------------------------
CARTESIAN COORDINATES (A.U.)
----------------------------
  NO LB      ZA    FRAG     MASS         X           Y           Z
   0 C     6.0000    0    12.011    1.235125    1.480544    0.989158
   1 C     6.0000    0    12.011    3.604955    1.473401   -0.213823
   2 C     6.0000    0    12.011   -0.361807   -0.654507    0.740055
   3 C     6.0000    0    12.011    4.392593   -0.620019   -1.613675
   4 C     6.0000    0    12.011    2.839427   -2.740065   -1.808638
   5 C     6.0000    0    12.011    0.482428   -2.765236   -0.624592
   6 H     1.0000    0     1.008    3.464038   -4.368971   -2.876277
   7 H     1.0000    0     1.008   -0.700673   -4.427666   -0.793383
   8 H     1.0000    0     1.008    4.859601    3.082313   -0.054254
   9 H     1.0000    0     1.008    6.221980   -0.607679   -2.528416
  10 C     6.0000    0    12.011    0.491763    3.722080    2.578456
  11 C     6.0000    0    12.011   -2.862708   -0.805685    1.975728
  12 N     7.0000    0    14.007   -4.862643    0.411866    1.278173
  13 H     1.0000    0     1.008   -3.096732   -2.235263    3.426168
  14 Si   14.0000    0    28.086   -5.383735    2.532139   -1.324679
  15 H     1.0000    0     1.008    0.170378    3.101456    4.556394
  16 H     1.0000    0     1.008   -1.254419    4.598252    1.857563
  17 H     1.0000    0     1.008    1.986556    5.195481    2.592515
  18 C     6.0000    0    12.011   -7.992464    1.147631   -3.253901
  19 C     6.0000    0    12.011   -2.655349    2.991021   -3.535451
  20 C     6.0000    0    12.011   -6.492589    5.664416   -0.122095
  21 H     1.0000    0     1.008   -7.392268   -0.716660   -4.001552
  22 H     1.0000    0     1.008   -8.439706    2.430301   -4.850644
  23 H     1.0000    0     1.008   -9.694975    0.904706   -2.055228
  24 H     1.0000    0     1.008   -2.015053    1.135064   -4.269364
  25 H     1.0000    0     1.008   -1.074158    3.986056   -2.605517
  26 H     1.0000    0     1.008   -3.292300    4.174991   -5.143438
  27 H     1.0000    0     1.008   -8.205550    5.386400    1.053673
  28 H     1.0000    0     1.008   -6.962035    6.901412   -1.748053
  29 H     1.0000    0     1.008   -5.008625    6.583352    1.031488

--------------------------------
INTERNAL COORDINATES (ANGSTROEM)
--------------------------------
 C      0   0   0     0.000000000000     0.00000000     0.00000000
 C      1   0   0     1.406388139917     0.00000000     0.00000000
 C      1   2   0     1.417037807682   119.17733962     0.00000000
 C      2   1   3     1.396302659526   120.55999784   359.26862544
 C      4   2   1     1.394553115984   120.10387454   359.32454523
 C      5   4   2     1.395868847779   120.07224188     0.61508275
 H      5   4   2     1.082335762229   119.95513085   180.73283227
 H      6   5   4     1.083443116043   119.14876084   180.04619730
 H      2   1   3     1.082965889814   120.61443242   179.94124820
 H      4   2   1     1.082366042243   119.96408994   180.14222463
 C      1   2   3     1.506337899078   119.18914451   178.06226236
 C      3   1   2     1.478314116993   122.40306744   179.11261082
 N     12   3   1     1.292834354935   125.42046628    73.69335720
 H     12   3   1     1.084779354155   116.93023472   245.21270561
 Si    13  12   3     1.797795922623   130.94508980     2.01966378
 H     11   1   2     1.110100231376   109.47928697   240.92465523
 H     11   1   2     1.101974697759   110.91696440   120.83835375
 H     11   1   2     1.110706383253   111.74864134     0.63808025
 C     15  13  12     1.866745259241   106.70715525   121.45556935
 C     15  13  12     1.874077762794   116.16538087     3.27596232
 C     15  13  12     1.869945446718   109.91343632   237.81768504
 H     19  15  13     1.109354899615   109.41103867   297.79391093
 H     19  15  13     1.109362532313   109.52244439   177.78327828
 H     19  15  13     1.109301196024   109.47327519    57.76319084
 H     20  15  13     1.109151190190   109.82782234    55.28875563
 H     20  15  13     1.104325316834   111.55125344   292.69094666
 H     20  15  13     1.109142512304   108.54094675   174.27813786
 H     21  15  13     1.109249485959   109.25379907   304.24439680
 H     21  15  13     1.109289475701   109.23055970   184.74432892
 H     21  15  13     1.107150450165   110.75658932    64.54943205

---------------------------
INTERNAL COORDINATES (A.U.)
---------------------------
 C      0   0   0     0.000000000000     0.00000000     0.00000000
 C      1   0   0     2.657688422439     0.00000000     0.00000000
 C      1   2   0     2.677813377931   119.17733962     0.00000000
 C      2   1   3     2.638629626570   120.55999784   359.26862544
 C      4   2   1     2.635323468416   120.10387454   359.32454523
 C      5   4   2     2.637809841175   120.07224188     0.61508275
 H      5   4   2     2.045318175562   119.95513085   180.73283227
 H      6   5   4     2.047410771003   119.14876084   180.04619730
 H      2   1   3     2.046508944126   120.61443242   179.94124820
 H      4   2   1     2.045375396495   119.96408994   180.14222463
 C      1   2   3     2.846566094405   119.18914451   178.06226236
 C      3   1   2     2.793608821026   122.40306744   179.11261082
 N     12   3   1     2.443102867352   125.42046628    73.69335720
 H     12   3   1     2.049935895084   116.93023472   245.21270561
 Si    13  12   3     3.397341938438   130.94508980     2.01966378
 H     11   1   2     2.097785418502   109.47928697   240.92465523
 H     11   1   2     2.082430385274   110.91696440   120.83835375
 H     11   1   2     2.098930879547   111.74864134     0.63808025
 C     15  13  12     3.527637301762   106.70715525   121.45556935
 C     15  13  12     3.541493725353   116.16538087     3.27596232
 C     15  13  12     3.533684779669   109.91343632   237.81768504
 H     19  15  13     2.096376945596   109.41103867   297.79391093
 H     19  15  13     2.096391369305   109.52244439   177.78327828
 H     19  15  13     2.096275460516   109.47327519    57.76319084
 H     20  15  13     2.095991990572   109.82782234    55.28875563
 H     20  15  13     2.086872411572   111.55125344   292.69094666
 H     20  15  13     2.095975591744   108.54094675   174.27813786
 H     21  15  13     2.096177742655   109.25379907   304.24439680
 H     21  15  13     2.096253312315   109.23055970   184.74432892
 H     21  15  13     2.092211139859   110.75658932    64.54943205

---------------------
BASIS SET INFORMATION
---------------------
There are 4 groups of distinct atoms

 Group   1 Type C   : 11s6p2d1f contracted to 5s3p2d1f pattern {62111/411/11/1}
 Group   2 Type H   : 5s1p contracted to 3s1p pattern {311/1}
 Group   3 Type N   : 11s6p2d1f contracted to 5s3p2d1f pattern {62111/411/11/1}
 Group   4 Type Si  : 14s9p3d1f contracted to 5s5p2d1f pattern {73211/51111/21/1}

Atom   0C    basis set group =>   1
Atom   1C    basis set group =>   1
Atom   2C    basis set group =>   1
Atom   3C    basis set group =>   1
Atom   4C    basis set group =>   1
Atom   5C    basis set group =>   1
Atom   6H    basis set group =>   2
Atom   7H    basis set group =>   2
Atom   8H    basis set group =>   2
Atom   9H    basis set group =>   2
Atom  10C    basis set group =>   1
Atom  11C    basis set group =>   1
Atom  12N    basis set group =>   3
Atom  13H    basis set group =>   2
Atom  14Si   basis set group =>   4
Atom  15H    basis set group =>   2
Atom  16H    basis set group =>   2
Atom  17H    basis set group =>   2
Atom  18C    basis set group =>   1
Atom  19C    basis set group =>   1
Atom  20C    basis set group =>   1
Atom  21H    basis set group =>   2
Atom  22H    basis set group =>   2
Atom  23H    basis set group =>   2
Atom  24H    basis set group =>   2
Atom  25H    basis set group =>   2
Atom  26H    basis set group =>   2
Atom  27H    basis set group =>   2
Atom  28H    basis set group =>   2
Atom  29H    basis set group =>   2
---------------------------------
AUXILIARY/J BASIS SET INFORMATION
---------------------------------
There are 4 groups of distinct atoms

 Group   1 Type C   : 12s5p4d2f1g contracted to 6s4p3d1f1g pattern {711111/2111/211/2/1}
 Group   2 Type H   : 5s2p1d contracted to 3s1p1d pattern {311/2/1}
 Group   3 Type N   : 12s5p4d2f1g contracted to 6s4p3d1f1g pattern {711111/2111/211/2/1}
 Group   4 Type Si  : 14s5p5d2f1g contracted to 8s4p3d1f1g pattern {71111111/2111/311/2/1}

Atom   0C    basis set group =>   1
Atom   1C    basis set group =>   1
Atom   2C    basis set group =>   1
Atom   3C    basis set group =>   1
Atom   4C    basis set group =>   1
Atom   5C    basis set group =>   1
Atom   6H    basis set group =>   2
Atom   7H    basis set group =>   2
Atom   8H    basis set group =>   2
Atom   9H    basis set group =>   2
Atom  10C    basis set group =>   1
Atom  11C    basis set group =>   1
Atom  12N    basis set group =>   3
Atom  13H    basis set group =>   2
Atom  14Si   basis set group =>   4
Atom  15H    basis set group =>   2
Atom  16H    basis set group =>   2
Atom  17H    basis set group =>   2
Atom  18C    basis set group =>   1
Atom  19C    basis set group =>   1
Atom  20C    basis set group =>   1
Atom  21H    basis set group =>   2
Atom  22H    basis set group =>   2
Atom  23H    basis set group =>   2
Atom  24H    basis set group =>   2
Atom  25H    basis set group =>   2
Atom  26H    basis set group =>   2
Atom  27H    basis set group =>   2
Atom  28H    basis set group =>   2
Atom  29H    basis set group =>   2


           ************************************************************
           *        Program running with 5 parallel MPI-processes     *
           *              working on a common directory               *
           ************************************************************
------------------------------------------------------------------------------
                             ORCA STARTUP CALCULATIONS
                           -- RI-GTO INTEGRALS CHOSEN --
------------------------------------------------------------------------------
------------------------------------------------------------------------------
                   ___                                                        
                  /   \      - P O W E R E D   B Y -                         
                 /     \                                                     
                 |  |  |   _    _      __       _____    __    __             
                 |  |  |  | |  | |    /  \     |  _  \  |  |  /  |          
                  \  \/   | |  | |   /    \    | | | |  |  | /  /          
                 / \  \   | |__| |  /  /\  \   | |_| |  |  |/  /          
                |  |  |   |  __  | /  /__\  \  |    /   |      \           
                |  |  |   | |  | | |   __   |  |    \   |  |\   \          
                \     /   | |  | | |  |  |  |  | |\  \  |  | \   \       
                 \___/    |_|  |_| |__|  |__|  |_| \__\ |__|  \__/        
                                                                              
                      - O R C A' S   B I G   F R I E N D -                    
                                      &                                       
                       - I N T E G R A L  F E E D E R -                       
                                                                              
 v1 FN, 2020, v2 2021, v3 2022-2024                                           
------------------------------------------------------------------------------


----------------------
SHARK INTEGRAL PACKAGE
----------------------

Number of atoms                             ...     30
Number of basis functions                   ...    511
Number of shells                            ...    213
Maximum angular momentum                    ...      3
Integral batch strategy                     ... SHARK/LIBINT Hybrid
RI-J (if used) integral strategy            ... SPLIT-RIJ (Revised 2003 algorithm where possible)
Printlevel                                  ...      1
Contraction scheme used                     ... SEGMENTED contraction
Prescreening option                         ... SCHWARTZ
   Thresh                                   ... 2.500e-11
   Tcut                                     ... 2.500e-12
   Tpresel                                  ... 2.500e-12 
Coulomb Range Separation                    ... NOT USED
Exchange Range Separation                   ... Long Range
   Mu parameter                             ... 2.500e-01
   Scaling (regular/separated)              ... 1.957e-01 8.043e-01
Multipole approximations                    ... NOT USED
Finite Nucleus Model                        ... NOT USED
CABS basis                                  ... NOT available
Auxiliary Coulomb fitting basis             ... AVAILABLE
   # of basis functions in Aux-J            ...    826
   # of shells in Aux-J                     ...    282
   Maximum angular momentum in Aux-J        ...      4
Auxiliary J/K fitting basis                 ... NOT available
Auxiliary Correlation fitting basis         ... NOT available
Auxiliary 'external' fitting basis          ... NOT available

Checking pre-screening integrals            ... done (  0.0 sec) Dimension = 213
Check shell pair data                       ... done (  0.0 sec)
Shell pair information
Shell pair cut-off parameter TPreSel        ...   2.5e-12
Total number of shell pairs                 ...     22791
Shell pairs after pre-screening             ...     19022
Total number of primitive shell pairs       ...     68616
Primitive shell pairs kept                  ...     40071
          la=0 lb=0:   5465 shell pairs
          la=1 lb=0:   5610 shell pairs
          la=1 lb=1:   1489 shell pairs
          la=2 lb=0:   2542 shell pairs
          la=2 lb=1:   1330 shell pairs
          la=2 lb=2:    320 shell pairs
          la=3 lb=0:   1231 shell pairs
          la=3 lb=1:    654 shell pairs
          la=3 lb=2:    300 shell pairs
          la=3 lb=3:     81 shell pairs

Calculating one electron integrals          ... done (  0.1 sec)
Calculating RI/J V-Matrix + Cholesky decomp.... done (  0.1 sec)
Calculating Nuclear repulsion               ... done (  0.0 sec) ENN=    889.333214546059 Eh

Diagonalization of the overlap matrix:
Smallest eigenvalue                        ... 6.327e-06
Time for diagonalization                   ...    0.058 sec
Threshold for overlap eigenvalues          ... 1.000e-07
Number of eigenvalues below threshold      ... 0
Time for construction of square roots      ...    0.028 sec
Total time needed                          ...    0.092 sec

-------------------
DFT GRID GENERATION
-------------------

General Integration Accuracy     IntAcc      ... 4.388
Radial Grid Type                 RadialGrid  ... OptM3 with GC (2021)
Angular Grid (max. ang.)         AngularGrid ... 4 (Lebedev-302)
Angular grid pruning method      GridPruning ... 4 (adaptive)
Weight generation scheme         WeightScheme... mBecke (2022)
Basis function cutoff            BFCut       ... 1.0000e-11
Integration weight cutoff        WCut        ... 1.0000e-14
Partially contracted basis set               ... off
Rotationally invariant grid construction     ... off
Angular grids for H and He will be reduced by one unit

Total number of grid points                  ...   133259
Total number of batches                      ...     2095
Average number of points per batch           ...       63
Average number of grid points per atom       ...     4442

--------------------
COSX GRID GENERATION
--------------------

GRIDX 1
-------
General Integration Accuracy     IntAcc      ... 3.816
Radial Grid Type                 RadialGrid  ... OptM3 with GC (2021)
Angular Grid (max. ang.)         AngularGrid ... 1 (Lebedev-50)
Angular grid pruning method      GridPruning ... 4 (adaptive)
Weight generation scheme         WeightScheme... mBecke (2022)
Basis function cutoff            BFCut       ... 1.0000e-11
Integration weight cutoff        WCut        ... 1.0000e-14
Partially contracted basis set               ... on
Rotationally invariant grid construction     ... off
Angular grids for H and He will be reduced by one unit

Total number of grid points                  ...    17965
Total number of batches                      ...      157
Average number of points per batch           ...      114
Average number of grid points per atom       ...      599
UseSFitting                                  ... on

GRIDX 2
-------
General Integration Accuracy     IntAcc      ... 4.020
Radial Grid Type                 RadialGrid  ... OptM3 with GC (2021)
Angular Grid (max. ang.)         AngularGrid ... 2 (Lebedev-110)
Angular grid pruning method      GridPruning ... 4 (adaptive)
Weight generation scheme         WeightScheme... mBecke (2022)
Basis function cutoff            BFCut       ... 1.0000e-11
Integration weight cutoff        WCut        ... 1.0000e-14
Partially contracted basis set               ... on
Rotationally invariant grid construction     ... off
Angular grids for H and He will be reduced by one unit

Total number of grid points                  ...    35733
Total number of batches                      ...      293
Average number of points per batch           ...      121
Average number of grid points per atom       ...     1191
UseSFitting                                  ... on

GRIDX 3
-------
General Integration Accuracy     IntAcc      ... 4.338
Radial Grid Type                 RadialGrid  ... OptM3 with GC (2021)
Angular Grid (max. ang.)         AngularGrid ... 3 (Lebedev-194)
Angular grid pruning method      GridPruning ... 4 (adaptive)
Weight generation scheme         WeightScheme... mBecke (2022)
Basis function cutoff            BFCut       ... 1.0000e-11
Integration weight cutoff        WCut        ... 1.0000e-14
Partially contracted basis set               ... on
Rotationally invariant grid construction     ... off
Angular grids for H and He will be reduced by one unit

Total number of grid points                  ...    78336
Total number of batches                      ...      627
Average number of points per batch           ...      124
Average number of grid points per atom       ...     2611
UseSFitting                                  ... on
Initializing property integral containers    ... done (  0.0 sec)

SHARK setup successfully completed in   3.6 seconds

Maximum memory used throughout the entire STARTUP-calculation: 57.9 MB


           ************************************************************
           *        Program running with 5 parallel MPI-processes     *
           *              working on a common directory               *
           ************************************************************
-------------------------------------------------------------------------------
                                 ORCA GUESS
                   Start orbitals & Density for SCF / CASSCF
-------------------------------------------------------------------------------

------------
SCF SETTINGS
------------
Hamiltonian:
 Density Functional     Method          .... DFT(GTOs)
 Exchange Functional    Exchange        .... WB97X-D3
 Correlation Functional Correlation     .... WB97X-D3
 Gradients option       PostSCFGGA      .... off
 Hybrid DFT is turned on
   Fraction HF Exchange ScalHFX         ....  0.195728
   Scaling of DF-GGA-X  ScalDFX         ....  0.000000
   Scaling of DF-GGA-C  ScalDFC         ....  1.000000
   Scaling of DF-LDA-C  ScalLDAC        ....  1.000000
   Perturbative correction              ....  0.000000
 Long-range corrected/Screened/Range-Separated Hybrid DFT is turned on
   Amount of maximum screened exact exchange              ....  0.804272
   Range separation parameter mu (erf(mu*r12)/r12)        ....  0.250000
 RI-approximation to the Coulomb term is turned on
   Number of AuxJ basis functions       .... 826
   RIJ-COSX (HFX calculated with COS-X)).... on


General Settings:
 Integral files         IntName         .... 32-T1-0
 Hartree-Fock type      HFTyp           .... UHF
 Total Charge           Charge          ....    0
 Multiplicity           Mult            ....    3
 Number of Electrons    NEL             ....  104
 Basis Dimension        Dim             ....  511
 Nuclear Repulsion      ENuc            ....    889.3332145461 Eh

Convergence Acceleration:
 AO-DIIS                CNVDIIS         .... on
   Start iteration      DIISMaxIt       ....    12
   Startup error        DIISStart       ....  0.200000
   # of expansion vecs  DIISMaxEq       ....     5
   Bias factor          DIISBfac        ....   1.050
   Max. coefficient     DIISMaxC        ....  10.000
 MO-DIIS                CNVKDIIS        .... off
 Trust-Rad. Augm. Hess. CNVTRAH         .... auto
   Auto Start mean grad. ratio tolernc. ....  1.125000
   Auto Start start iteration           ....    50
   Auto Start num. interpolation iter.  ....    10
   Max. Number of Micro iterations      ....    24
   Max. Number of Macro iterations      .... Maxiter - #DIIS iter
   Number of Davidson start vectors     ....     2
   Converg. threshold    (grad. norm)   ....   1.000e-05
   Grad. Scal. Fac. for Micro threshold ....   0.100
   Minimum threshold for Micro iter.    ....   1.000e-02
   NR start threshold (gradient norm)   ....   1.000e-04
   Initial trust radius                 ....   0.400
   Minimum AH scaling param. (alpha)    ....   1.000
   Maximum AH scaling param. (alpha)    .... 1000.000
   Quad. conv. algorithm                .... NR
   White noise on init. David. guess    .... on
   Maximum white noise                  ....   0.010
   Pseudo random numbers                .... off
   Inactive MOs                         .... canonical
   Orbital update algorithm             .... Taylor
   Preconditioner                       .... Diag
   Full preconditioner red. dimension   ....   250
 SOSCF                  CNVSOSCF        .... on
   Start iteration      SOSCFMaxIt      ....   150
   Startup grad/error   SOSCFStart      ....  0.003300
   Hessian update       SOSCFHessUp     .... L-BFGS
 Level Shifting         CNVShift        .... on
   Level shift para.    LevelShift      ....    0.2500
   Turn off err/grad.   ShiftErr        ....    0.0010
 Zerner damping         CNVZerner       .... off
 Static damping         CNVDamp         .... on
   Fraction old density DampFac         ....    0.7000
   Max. Damping (<1)    DampMax         ....    0.9800
   Min. Damping (>=0)   DampMin         ....    0.0000
   Turn off err/grad.   DampErr         ....    0.1000

SCF Procedure:
 Maximum # iterations   MaxIter         ....   300
 SCF integral mode      SCFMode         .... Direct
   Integral package                     .... SHARK and LIBINT hybrid scheme
 Reset frequency        DirectResetFreq ....    20
 Integral Threshold     Thresh          ....  2.500e-11 Eh
 Primitive CutOff       TCut            ....  2.500e-12 Eh

Convergence Tolerance:
 Convergence Check Mode ConvCheckMode   .... Total+1el-Energy
 Convergence forced     ConvForced      .... 0
 Energy Change          TolE            ....  1.000e-08 Eh
 1-El. energy change                    ....  1.000e-05 Eh
 Orbital Gradient       TolG            ....  1.000e-05
 Orbital Rotation angle TolX            ....  1.000e-05
 DIIS Error             TolErr          ....  5.000e-07

------------------------------
INITIAL GUESS: MODEL POTENTIAL
------------------------------
Loading Hartree-Fock densities                     ... done
Calculating cut-offs                               ... done
Initializing the effective Hamiltonian             ... done
Setting up the integral package (SHARK)            ... done
Starting the Coulomb interaction                   ... done (   0.3 sec)
Making the grid                                    ... done (   0.3 sec)
Mapping shells                                     ... done
Starting the XC term evaluation                    ... done (   0.4 sec)
  promolecular density results
     # of electrons  =    103.996451147
     EX              =    -87.985703268
     EC              =     -3.467758958
     EX+EC           =    -91.453462226
Transforming the Hamiltonian                       ... done (   0.0 sec)
Diagonalizing the Hamiltonian                      ... done (   0.1 sec)
Back transforming the eigenvectors                 ... done (   0.0 sec)
Now organizing SCF variables                       ... done
                      ------------------
                      INITIAL GUESS DONE (   1.1 sec)
                      ------------------
             **** ENERGY FILE WAS UPDATED (32-T1-0.en.tmp) ****
Finished Guess after   2.3 sec
Maximum memory used throughout the entire GUESS-calculation: 41.5 MB


           ************************************************************
           *        Program running with 5 parallel MPI-processes     *
           *              working on a common directory               *
           ************************************************************

-------------------------------------------------------------------------------------------
                                      ORCA LEAN-SCF
                              memory conserving SCF solver
-------------------------------------------------------------------------------------------

--------------------
CPCM SOLVATION MODEL
--------------------
CPCM parameters:
  Epsilon                                         ...       8.9990
  Refrac                                          ...       1.4242
  Rsolv                                           ...       1.3000
  Surface type                                    ... GAUSSIAN VDW
  Discretization scheme                           ... Constant charge density
    Threshold for H atoms                         ...       5.0000 (charges/Ang^2)
    Threshold for non-H atoms                     ...       5.0000 (charges/Ang^2)
  Epsilon function type                           ...         CPCM
Solvent:                                          ... DICHLOROMETHANE
Radii:
  Scheme                                          ... Element-dependent radii
  Radius for C  used is    3.8550 Bohr (=   2.0400 Ang.)
  Radius for H  used is    2.4944 Bohr (=   1.3200 Ang.)
  Radius for N  used is    3.5149 Bohr (=   1.8600 Ang.)
  Radius for Si used is    4.7621 Bohr (=   2.5200 Ang.)
Calculating surface                               ...        done! (  0.0s)
Cavity surface points                             ...         2616
Cavity Volume                                     ...    1766.8819
Cavity Surface-area                               ...     904.4475
Calculating surface distance matrix               ...        done! (  0.1s)
Performing Cholesky decomposition & store         ...        done! (  0.4s)
Overall time for CPCM initialization              ...                 0.4s

----------------------------------------D-I-I-S--------------------------------------------
Iteration    Energy (Eh)           Delta-E    RMSDP     MaxDP     DIISErr   Damp  Time(sec)
-------------------------------------------------------------------------------------------
               ***  Starting incremental Fock matrix formation  ***
    1    -773.0865484364586564     0.00e+00  6.91e-04  3.49e-02  1.40e-01  0.700  19.4
Warning: op=1 Small HOMO/LUMO gap (   0.093) - skipping pre-diagonalization
         Will do a full diagonalization
    2    -773.2842014047786279    -1.98e-01  6.72e-04  3.50e-02  7.05e-02  0.700  11.2
                               ***Turning on AO-DIIS***
    3    -773.3833258570576845    -9.91e-02  3.19e-04  1.29e-02  3.15e-02  0.700  10.8
    4    -773.4420201324361415    -5.87e-02  6.15e-04  2.31e-02  1.90e-02  0.000  10.5
    5    -773.5690811137434366    -1.27e-01  1.28e-04  9.41e-03  3.42e-03  0.000  10.8
    6    -773.5702762854242565    -1.20e-03  9.49e-05  6.69e-03  4.19e-03  0.000  10.0
                              *** Initializing SOSCF ***
---------------------------------------S-O-S-C-F--------------------------------------
Iteration    Energy (Eh)           Delta-E    RMSDP     MaxDP     MaxGrad    Time(sec)
--------------------------------------------------------------------------------------
    7    -773.5711096063963623    -8.33e-04  1.26e-04  8.91e-03  2.26e-03    10.0
               *** Restarting incremental Fock matrix formation ***
    8    -773.5720853484962163    -9.76e-04  2.18e-04  1.57e-02  7.95e-03    19.2
               *** Scaled step length from 0.859078 to 0.200000 ***
    9    -773.5732724565654053    -1.19e-03  7.58e-04  4.55e-02  6.80e-03    15.8
               *** Scaled step length from 0.692403 to 0.200000 ***
   10    -773.5772295350105878    -3.96e-03  6.51e-04  3.13e-02  4.75e-03    17.4
               *** Scaled step length from 0.255715 to 0.200000 ***
   11    -773.5800118953333140    -2.78e-03  5.95e-04  2.90e-02  4.97e-03    16.9
   12    -773.5812399768095702    -1.23e-03  1.10e-04  3.67e-03  3.86e-03    16.8
   13    -773.5819025458487204    -6.63e-04  2.04e-04  6.77e-03  3.78e-03    15.5
   14    -773.5825784659836017    -6.76e-04  7.98e-05  3.19e-03  2.13e-03    16.3
   15    -773.5827271447441262    -1.49e-04  5.10e-05  3.07e-03  1.25e-03    15.3
   16    -773.5828077466766217    -8.06e-05  2.95e-05  1.30e-03  6.40e-04    14.8
   17    -773.5828441882575817    -3.64e-05  2.88e-05  1.85e-03  6.44e-04    14.6
   18    -773.5828636732907171    -1.95e-05  4.08e-05  2.54e-03  5.46e-04    14.5
   19    -773.5828946924342517    -3.10e-05  5.12e-05  2.41e-03  5.69e-04    14.4
   20    -773.5829236955279384    -2.90e-05  3.62e-05  1.72e-03  6.58e-04    14.5
   21    -773.5829407125280568    -1.70e-05  2.37e-05  1.13e-03  5.28e-04    14.3
   22    -773.5829513467830338    -1.06e-05  1.04e-05  4.68e-04  3.07e-04    13.9
   23    -773.5829548056282192    -3.46e-06  5.97e-06  2.04e-04  1.63e-04    13.3
   24    -773.5829558732676787    -1.07e-06  3.91e-06  1.41e-04  6.71e-05    12.8
   25    -773.5829562255038354    -3.52e-07  2.23e-06  1.15e-04  2.87e-05    12.1
   26    -773.5829563096395987    -8.41e-08  8.81e-07  4.94e-05  1.97e-05    11.2
   27    -773.5829563174571604    -7.82e-09  7.67e-07  4.78e-05  1.07e-05    10.3
                 **** Energy Check signals convergence ****

               *****************************************************
               *                     SUCCESS                       *
               *           SCF CONVERGED AFTER  27 CYCLES          *
               *****************************************************

Recomputing exchange energy using gridx3       ... done (   31.070 sec)
Old exchange energy                            :    -28.757623206 Eh
New exchange energy                            :    -28.757625837 Eh
Exchange energy change after final integration :     -0.000002631 Eh
Total energy after final integration           :   -773.582958949 Eh
             **** ENERGY FILE WAS UPDATED (32-T1-0.en.tmp) ****

----------------
TOTAL SCF ENERGY
----------------

Total Energy       :       -773.58295894851403 Eh          -21050.26249 eV

Components:
Nuclear Repulsion  :        889.33321454605937 Eh           24199.98707 eV
Electronic Energy  :      -1662.90565954110298 Eh          -45249.96346 eV
One Electron Energy:      -2821.06909637313402 Eh          -76765.19278 eV
Two Electron Energy:       1158.16343683203104 Eh           31515.22932 eV
CPCM Dielectric    :         -0.01051132241363 Eh              -0.28603 eV

Virial components:
Potential Energy   :      -1544.07263679298580 Eh          -42016.35252 eV
Kinetic Energy     :        770.48967784447177 Eh           20966.09003 eV
Virial Ratio       :          2.00401469506080

DFT components:
N(Alpha)           :       52.999784324528 electrons
N(Beta)            :       50.999771697831 electrons
N(Total)           :      103.999556022359 electrons
E(XC)              :      -65.097399661414 Eh       

CPCM Solvation Model Properties:
Surface-charge          :         -0.03459249897353
Corrected charge        :         -0.00000000000000
Outlying charge corr.   :          0.00006615062239 Eh               0.00180 eV
Free-energy (cav+disp)  :  This term is not implemented in the current solvation scheme

---------------
SCF CONVERGENCE
---------------

  Last Energy change         ...    7.8176e-09  Tolerance :   1.0000e-08
  Last MAX-Density change    ...    4.7796e-05  Tolerance :   1.0000e-07
  Last RMS-Density change    ...    7.6733e-07  Tolerance :   5.0000e-09
  Last DIIS Error            ...    2.2576e-03  Tolerance :   5.0000e-07
  Last Orbital Gradient      ...    1.0747e-05  Tolerance :   1.0000e-05
  Last Orbital Rotation      ...    4.1951e-05  Tolerance :   1.0000e-05


----------------------
UHF SPIN CONTAMINATION
----------------------

Warning: in a DFT calculation there is little theoretical justification to 
         calculate <S**2> as in Hartree-Fock theory. We will do it anyways
         but you should keep in mind that the values have only limited relevance

Expectation value of <S**2>     :     2.064089
Ideal value S*(S+1) for S=1.0   :     2.000000
Deviation                       :     0.064089

----------------
ORBITAL ENERGIES
----------------
                 SPIN UP ORBITALS
  NO   OCC          E(Eh)            E(eV) 
   0   1.0000     -66.184928     -1800.9835 
   1   1.0000     -14.398131      -391.7931 
   2   1.0000     -10.330838      -281.1164 
   3   1.0000     -10.306814      -280.4627 
   4   1.0000     -10.297995      -280.2227 
   5   1.0000     -10.296140      -280.1722 
   6   1.0000     -10.286315      -279.9049 
   7   1.0000     -10.281520      -279.7744 
   8   1.0000     -10.279393      -279.7165 
   9   1.0000     -10.279365      -279.7157 
  10   1.0000     -10.249929      -278.9147 
  11   1.0000     -10.247252      -278.8419 
  12   1.0000     -10.246665      -278.8259 
  13   1.0000      -5.364895      -145.9862 
  14   1.0000      -3.714139      -101.0669 
  15   1.0000      -3.712986      -101.0355 
  16   1.0000      -3.712841      -101.0315 
  17   1.0000      -1.015769       -27.6405 
  18   1.0000      -0.981248       -26.7011 
  19   1.0000      -0.907126       -24.6842 
  20   1.0000      -0.879588       -23.9348 
  21   1.0000      -0.825961       -22.4755 
  22   1.0000      -0.808599       -22.0031 
  23   1.0000      -0.783948       -21.3323 
  24   1.0000      -0.780931       -21.2502 
  25   1.0000      -0.749321       -20.3900 
  26   1.0000      -0.717255       -19.5175 
  27   1.0000      -0.679673       -18.4949 
  28   1.0000      -0.623300       -16.9608 
  29   1.0000      -0.584320       -15.9002 
  30   1.0000      -0.574968       -15.6457 
  31   1.0000      -0.568347       -15.4655 
  32   1.0000      -0.543641       -14.7932 
  33   1.0000      -0.533069       -14.5055 
  34   1.0000      -0.517747       -14.0886 
  35   1.0000      -0.514399       -13.9975 
  36   1.0000      -0.505404       -13.7527 
  37   1.0000      -0.503299       -13.6955 
  38   1.0000      -0.486157       -13.2290 
  39   1.0000      -0.484403       -13.1813 
  40   1.0000      -0.480087       -13.0638 
  41   1.0000      -0.473281       -12.8786 
  42   1.0000      -0.469491       -12.7755 
  43   1.0000      -0.467309       -12.7161 
  44   1.0000      -0.450619       -12.2620 
  45   1.0000      -0.446213       -12.1421 
  46   1.0000      -0.425119       -11.5681 
  47   1.0000      -0.385997       -10.5035 
  48   1.0000      -0.384358       -10.4589 
  49   1.0000      -0.371254       -10.1023 
  50   1.0000      -0.358969        -9.7681 
  51   1.0000      -0.328399        -8.9362 
  52   1.0000      -0.178796        -4.8653 
  53   0.0000       0.040972         1.1149 
  54   0.0000       0.060076         1.6347 
  55   0.0000       0.110153         2.9974 
  56   0.0000       0.138741         3.7753 
  57   0.0000       0.140250         3.8164 
  58   0.0000       0.151126         4.1123 
  59   0.0000       0.154677         4.2090 
  60   0.0000       0.161684         4.3996 
  61   0.0000       0.162791         4.4298 
  62   0.0000       0.170795         4.6476 
  63   0.0000       0.177189         4.8216 

                 SPIN DOWN ORBITALS
  NO   OCC          E(Eh)            E(eV) 
   0   1.0000     -66.184951     -1800.9841 
   1   1.0000     -14.396014      -391.7354 
   2   1.0000     -10.331474      -281.1337 
   3   1.0000     -10.301019      -280.3050 
   4   1.0000     -10.291975      -280.0589 
   5   1.0000     -10.291117      -280.0355 
   6   1.0000     -10.288152      -279.9548 
   7   1.0000     -10.283879      -279.8386 
   8   1.0000     -10.279775      -279.7269 
   9   1.0000     -10.273411      -279.5537 
  10   1.0000     -10.249852      -278.9126 
  11   1.0000     -10.247186      -278.8401 
  12   1.0000     -10.246622      -278.8248 
  13   1.0000      -5.364916      -145.9868 
  14   1.0000      -3.714187      -101.0682 
  15   1.0000      -3.713009      -101.0361 
  16   1.0000      -3.712850      -101.0318 
  17   1.0000      -1.003466       -27.3057 
  18   1.0000      -0.968306       -26.3489 
  19   1.0000      -0.887603       -24.1529 
  20   1.0000      -0.865465       -23.5505 
  21   1.0000      -0.825452       -22.4617 
  22   1.0000      -0.799758       -21.7625 
  23   1.0000      -0.783571       -21.3220 
  24   1.0000      -0.780667       -21.2430 
  25   1.0000      -0.736616       -20.0443 
  26   1.0000      -0.709268       -19.3002 
  27   1.0000      -0.668515       -18.1912 
  28   1.0000      -0.618241       -16.8232 
  29   1.0000      -0.578025       -15.7289 
  30   1.0000      -0.567363       -15.4387 
  31   1.0000      -0.556347       -15.1390 
  32   1.0000      -0.531608       -14.4658 
  33   1.0000      -0.525713       -14.3054 
  34   1.0000      -0.516107       -14.0440 
  35   1.0000      -0.509948       -13.8764 
  36   1.0000      -0.503091       -13.6898 
  37   1.0000      -0.497114       -13.5272 
  38   1.0000      -0.484599       -13.1866 
  39   1.0000      -0.480496       -13.0750 
  40   1.0000      -0.477549       -12.9948 
  41   1.0000      -0.469129       -12.7656 
  42   1.0000      -0.465406       -12.6643 
  43   1.0000      -0.445135       -12.1127 
  44   1.0000      -0.441413       -12.0115 
  45   1.0000      -0.431017       -11.7286 
  46   1.0000      -0.414470       -11.2783 
  47   1.0000      -0.384822       -10.4715 
  48   1.0000      -0.373287       -10.1577 
  49   1.0000      -0.339199        -9.2301 
  50   1.0000      -0.322798        -8.7838 
  51   0.0000      -0.097990        -2.6664 
  52   0.0000       0.044394         1.2080 
  53   0.0000       0.077751         2.1157 
  54   0.0000       0.096507         2.6261 
  55   0.0000       0.111085         3.0228 
  56   0.0000       0.139147         3.7864 
  57   0.0000       0.141002         3.8368 
  58   0.0000       0.151914         4.1338 
  59   0.0000       0.154911         4.2153 
  60   0.0000       0.163080         4.4376 
  61   0.0000       0.164876         4.4865 
*Only the first 10 virtual orbitals were printed.

                    ********************************
                    * MULLIKEN POPULATION ANALYSIS *
                    ********************************

--------------------------------------------
MULLIKEN ATOMIC CHARGES AND SPIN POPULATIONS
--------------------------------------------
   0 C :   -0.029186    0.529631
   1 C :   -0.176035   -0.176498
   2 C :    0.174085    0.607389
   3 C :   -0.195687    0.579262
   4 C :   -0.107461    0.436604
   5 C :   -0.248034   -0.121506
   6 H :    0.170003   -0.014908
   7 H :    0.155176    0.003688
   8 H :    0.149793    0.005558
   9 H :    0.164537   -0.022542
  10 C :   -0.326902   -0.020819
  11 C :   -0.075265   -0.027426
  12 N :   -0.401351    0.114554
  13 H :    0.144848    0.019983
  14 Si:    0.397918    0.006881
  15 H :    0.153421    0.033860
  16 H :    0.114060    0.031520
  17 H :    0.147451    0.000071
  18 C :   -0.504387    0.002027
  19 C :   -0.515947    0.007106
  20 C :   -0.478369   -0.000584
  21 H :    0.137101   -0.000091
  22 H :    0.137361    0.000093
  23 H :    0.138812   -0.000075
  24 H :    0.144753    0.000080
  25 H :    0.151874    0.001298
  26 H :    0.153013    0.002283
  27 H :    0.142329    0.000338
  28 H :    0.139714    0.001724
  29 H :    0.142374    0.000500
Sum of atomic charges         :   -0.0000000
Sum of atomic spin populations:    2.0000000

-----------------------------------------------------
MULLIKEN REDUCED ORBITAL CHARGES AND SPIN POPULATIONS
-----------------------------------------------------
CHARGE
  0 C s       :     3.203897  s :     3.203897
      pz      :     0.880432  p :     2.665474
      px      :     0.915342
      py      :     0.869699
      dz2     :     0.024364  d :     0.150086
      dxz     :     0.025943
      dyz     :     0.021895
      dx2y2   :     0.033989
      dxy     :     0.043895
      f0      :     0.000998  f :     0.009730
      f+1     :     0.001463
      f-1     :     0.001036
      f+2     :     0.001038
      f-2     :     0.001807
      f+3     :     0.001136
      f-3     :     0.002253

  1 C s       :     3.219586  s :     3.219586
      pz      :     0.957161  p :     2.851004
      px      :     0.914750
      py      :     0.979093
      dz2     :     0.022434  d :     0.098199
      dxz     :     0.015488
      dyz     :     0.011420
      dx2y2   :     0.019352
      dxy     :     0.029506
      f0      :     0.000412  f :     0.007245
      f+1     :     0.001387
      f-1     :     0.001245
      f+2     :     0.000859
      f-2     :     0.001138
      f+3     :     0.000936
      f-3     :     0.001268

  2 C s       :     3.110037  s :     3.110037
      pz      :     0.908036  p :     2.571258
      px      :     0.819345
      py      :     0.843878
      dz2     :     0.017785  d :     0.134968
      dxz     :     0.024276
      dyz     :     0.021052
      dx2y2   :     0.037210
      dxy     :     0.034645
      f0      :     0.000942  f :     0.009653
      f+1     :     0.001192
      f-1     :     0.001309
      f+2     :     0.001190
      f-2     :     0.001569
      f+3     :     0.001255
      f-3     :     0.002196

  3 C s       :     3.214238  s :     3.214238
      pz      :     0.982604  p :     2.885755
      px      :     0.978727
      py      :     0.924425
      dz2     :     0.011163  d :     0.088463
      dxz     :     0.013309
      dyz     :     0.017457
      dx2y2   :     0.025345
      dxy     :     0.021190
      f0      :     0.000839  f :     0.007231
      f+1     :     0.000568
      f-1     :     0.001280
      f+2     :     0.000874
      f-2     :     0.001249
      f+3     :     0.000929
      f-3     :     0.001492

  4 C s       :     3.195267  s :     3.195267
      pz      :     0.932038  p :     2.809001
      px      :     0.920386
      py      :     0.956577
      dz2     :     0.009346  d :     0.095942
      dxz     :     0.017919
      dyz     :     0.018109
      dx2y2   :     0.025926
      dxy     :     0.024642
      f0      :     0.000772  f :     0.007251
      f+1     :     0.001441
      f-1     :     0.000373
      f+2     :     0.000727
      f-2     :     0.001372
      f+3     :     0.000771
      f-3     :     0.001795

  5 C s       :     3.279262  s :     3.279262
      pz      :     0.966082  p :     2.868465
      px      :     0.953543
      py      :     0.948840
      dz2     :     0.021465  d :     0.093025
      dxz     :     0.012600
      dyz     :     0.011911
      dx2y2   :     0.017408
      dxy     :     0.029641
      f0      :     0.000420  f :     0.007281
      f+1     :     0.001425
      f-1     :     0.001188
      f+2     :     0.000920
      f-2     :     0.001114
      f+3     :     0.000930
      f-3     :     0.001284

  6 H s       :     0.807886  s :     0.807886
      pz      :     0.007105  p :     0.022111
      px      :     0.004610
      py      :     0.010396

  7 H s       :     0.822595  s :     0.822595
      pz      :     0.004391  p :     0.022230
      px      :     0.007113
      py      :     0.010726

  8 H s       :     0.828068  s :     0.828068
      pz      :     0.004202  p :     0.022139
      px      :     0.007688
      py      :     0.010248

  9 H s       :     0.812802  s :     0.812802
      pz      :     0.006870  p :     0.022661
      px      :     0.011985
      py      :     0.003805

 10 C s       :     3.276626  s :     3.276626
      pz      :     0.994333  p :     2.995088
      px      :     1.059109
      py      :     0.941646
      dz2     :     0.018391  d :     0.052108
      dxz     :     0.004964
      dyz     :     0.006005
      dx2y2   :     0.006548
      dxy     :     0.016199
      f0      :     0.000414  f :     0.003080
      f+1     :     0.000070
      f-1     :     0.000901
      f+2     :     0.000189
      f-2     :     0.000508
      f+3     :     0.000364
      f-3     :     0.000635

 11 C s       :     3.250395  s :     3.250395
      pz      :     0.911381  p :     2.679634
      px      :     0.854068
      py      :     0.914185
      dz2     :     0.016924  d :     0.134619
      dxz     :     0.030945
      dyz     :     0.019594
      dx2y2   :     0.044021
      dxy     :     0.023135
      f0      :     0.000629  f :     0.010616
      f+1     :     0.002101
      f-1     :     0.000844
      f+2     :     0.001384
      f-2     :     0.001717
      f+3     :     0.002331
      f-3     :     0.001609

 12 N s       :     3.567461  s :     3.567461
      pz      :     1.258887  p :     3.791701
      px      :     1.382995
      py      :     1.149819
      dz2     :     0.004923  d :     0.039562
      dxz     :     0.009451
      dyz     :     0.006618
      dx2y2   :     0.010016
      dxy     :     0.008554
      f0      :     0.000204  f :     0.002627
      f+1     :     0.000365
      f-1     :     0.000285
      f+2     :     0.000387
      f-2     :     0.000442
      f+3     :     0.000648
      f-3     :     0.000297

 13 H s       :     0.833961  s :     0.833961
      pz      :     0.008912  p :     0.021191
      px      :     0.003663
      py      :     0.008617

 14 Sis       :     5.242138  s :     5.242138
      pz      :     2.540314  p :     7.765058
      px      :     2.655122
      py      :     2.569622
      dz2     :     0.068827  d :     0.515836
      dxz     :     0.130144
      dyz     :     0.128586
      dx2y2   :     0.103217
      dxy     :     0.085062
      f0      :     0.009561  f :     0.079050
      f+1     :     0.012449
      f-1     :     0.011153
      f+2     :     0.011897
      f-2     :     0.014607
      f+3     :     0.009096
      f-3     :     0.010287

 15 H s       :     0.825712  s :     0.825712
      pz      :     0.012165  p :     0.020867
      px      :     0.004215
      py      :     0.004487

 16 H s       :     0.863530  s :     0.863530
      pz      :     0.005258  p :     0.022410
      px      :     0.011055
      py      :     0.006097

 17 H s       :     0.831634  s :     0.831634
      pz      :     0.003868  p :     0.020916
      px      :     0.008309
      py      :     0.008738

 18 C s       :     3.230521  s :     3.230521
      pz      :     1.076473  p :     3.247338
      px      :     1.101482
      py      :     1.069382
      dz2     :     0.002823  d :     0.025240
      dxz     :     0.005911
      dyz     :     0.006814
      dx2y2   :     0.006854
      dxy     :     0.002838
      f0      :    -0.000079  f :     0.001289
      f+1     :     0.000136
      f-1     :     0.000122
      f+2     :     0.000708
      f-2     :     0.000307
      f+3     :     0.000105
      f-3     :    -0.000010

 19 C s       :     3.217964  s :     3.217964
      pz      :     1.103207  p :     3.270349
      px      :     1.104698
      py      :     1.062444
      dz2     :     0.003363  d :     0.026401
      dxz     :     0.004719
      dyz     :     0.007794
      dx2y2   :     0.004278
      dxy     :     0.006246
      f0      :    -0.000050  f :     0.001233
      f+1     :     0.000160
      f-1     :     0.000066
      f+2     :     0.000380
      f-2     :     0.000533
      f+3     :     0.000024
      f-3     :     0.000119

 20 C s       :     3.218313  s :     3.218313
      pz      :     1.064924  p :     3.234470
      px      :     1.063871
      py      :     1.105676
      dz2     :     0.001361  d :     0.024356
      dxz     :     0.007155
      dyz     :     0.007044
      dx2y2   :     0.004490
      dxy     :     0.004306
      f0      :     0.000004  f :     0.001230
      f+1     :    -0.000001
      f-1     :     0.000163
      f+2     :     0.000555
      f-2     :     0.000411
      f+3     :     0.000044
      f-3     :     0.000054

 21 H s       :     0.840799  s :     0.840799
      pz      :     0.005557  p :     0.022100
      px      :     0.005603
      py      :     0.010941

 22 H s       :     0.840662  s :     0.840662
      pz      :     0.009423  p :     0.021977
      px      :     0.005305
      py      :     0.007250

 23 H s       :     0.839110  s :     0.839110
      pz      :     0.007202  p :     0.022077
      px      :     0.010565
      py      :     0.004310

 24 H s       :     0.833010  s :     0.833010
      pz      :     0.005708  p :     0.022237
      px      :     0.005792
      py      :     0.010737

 25 H s       :     0.824962  s :     0.824962
      pz      :     0.006793  p :     0.023164
      px      :     0.010395
      py      :     0.005975

 26 H s       :     0.824912  s :     0.824912
      pz      :     0.009742  p :     0.022074
      px      :     0.005626
      py      :     0.006706

 27 H s       :     0.835581  s :     0.835581
      pz      :     0.006822  p :     0.022090
      px      :     0.009789
      py      :     0.005480

 28 H s       :     0.838288  s :     0.838288
      pz      :     0.009054  p :     0.021998
      px      :     0.004564
      py      :     0.008381

 29 H s       :     0.834926  s :     0.834926
      pz      :     0.006905  p :     0.022701
      px      :     0.008619
      py      :     0.007177


SPIN
  0 C s       :     0.004967  s :     0.004967
      pz      :     0.320109  p :     0.510487
      px      :     0.092300
      py      :     0.098078
      dz2     :    -0.001300  d :     0.014696
      dxz     :     0.004317
      dyz     :     0.005396
      dx2y2   :     0.005309
      dxy     :     0.000975
      f0      :    -0.000032  f :    -0.000519
      f+1     :    -0.000422
      f-1     :    -0.000136
      f+2     :    -0.000255
      f-2     :     0.000162
      f+3     :    -0.000005
      f-3     :     0.000169

  1 C s       :     0.007263  s :     0.007263
      pz      :    -0.132134  p :    -0.214607
      px      :    -0.043429
      py      :    -0.039044
      dz2     :     0.017624  d :     0.029118
      dxz     :     0.002744
      dyz     :     0.001181
      dx2y2   :     0.000784
      dxy     :     0.006786
      f0      :     0.000062  f :     0.001727
      f+1     :     0.000450
      f-1     :     0.000538
      f+2     :     0.000167
      f-2     :     0.000093
      f+3     :     0.000308
      f-3     :     0.000109

  2 C s       :     0.005246  s :     0.005246
      pz      :     0.379165  p :     0.591933
      px      :     0.132065
      py      :     0.080703
      dz2     :    -0.001071  d :     0.010953
      dxz     :     0.003608
      dyz     :     0.001865
      dx2y2   :     0.005647
      dxy     :     0.000903
      f0      :    -0.000151  f :    -0.000743
      f+1     :    -0.000266
      f-1     :    -0.000371
      f+2     :    -0.000278
      f-2     :     0.000191
      f+3     :    -0.000018
      f-3     :     0.000151

  3 C s       :     0.006429  s :     0.006429
      pz      :     0.373907  p :     0.566890
      px      :     0.102559
      py      :     0.090424
      dz2     :    -0.001773  d :     0.006773
      dxz     :     0.002008
      dyz     :     0.002705
      dx2y2   :     0.003619
      dxy     :     0.000213
      f0      :    -0.000122  f :    -0.000829
      f+1     :    -0.000205
      f-1     :    -0.000439
      f+2     :    -0.000265
      f-2     :     0.000122
      f+3     :    -0.000048
      f-3     :     0.000128

  4 C s       :     0.005026  s :     0.005026
      pz      :     0.288016  p :     0.418050
      px      :     0.067038
      py      :     0.062995
      dz2     :    -0.001617  d :     0.013837
      dxz     :     0.003755
      dyz     :     0.005452
      dx2y2   :     0.005622
      dxy     :     0.000626
      f0      :    -0.000024  f :    -0.000308
      f+1     :    -0.000358
      f-1     :    -0.000071
      f+2     :    -0.000171
      f-2     :     0.000105
[...]
 34:    733.84   0.006205   31.36  0.002638  (-0.007525 -0.015108  0.048514)
 35:    749.05   0.001246    6.29  0.000519  (-0.016824 -0.003496 -0.014955)
 36:    766.77   0.010002   50.55  0.004071  ( 0.057839  0.026864  0.001870)
 37:    768.18   0.020567  103.94  0.008355  ( 0.007945  0.031461 -0.085452)
 38:    772.98   0.009939   50.23  0.004012  ( 0.023581 -0.044768 -0.038108)
 39:    855.42   0.030286  153.05  0.011049  ( 0.075560  0.071669 -0.014245)
 40:    855.87   0.043925  221.98  0.016016  ( 0.088346 -0.077376 -0.047157)
 41:    857.73   0.058375  295.01  0.021239  ( 0.087145 -0.046866  0.106995)
 42:    869.72   0.017853   90.22  0.006406  ( 0.052931 -0.057921  0.015795)
 43:    874.90   0.000578    2.92  0.000206  (-0.001096 -0.000955  0.014280)
 44:    963.81   0.000460    2.33  0.000149  ( 0.001580  0.003369 -0.011628)
 45:    997.92   0.000008    0.04  0.000002  ( 0.001264 -0.000866 -0.000133)
 46:   1001.62   0.003600   18.19  0.001122  (-0.026827  0.019934  0.002111)
 47:   1062.31   0.002815   14.23  0.000827  (-0.019471  0.015489 -0.014423)
 48:   1065.68   0.016505   83.41  0.004833  ( 0.065987 -0.021688 -0.002924)
 49:   1138.75   0.005479   27.69  0.001501  ( 0.038509 -0.002757  0.003286)
 50:   1168.85   0.001510    7.63  0.000403  ( 0.019497  0.002856  0.003858)
 51:   1185.31   0.047706  241.09  0.012560  ( 0.105368 -0.037054  0.009194)
 52:   1204.08   0.016391   82.84  0.004248  (-0.050679  0.040874  0.003031)
 53:   1233.99   0.003102   15.67  0.000784  ( 0.023010 -0.015493 -0.003857)
 54:   1273.39   0.007227   36.52  0.001771  (-0.025508 -0.033084 -0.005087)
 55:   1280.59   0.015383   77.74  0.003749  ( 0.027762 -0.029369 -0.045993)
 56:   1282.03   0.006646   33.59  0.001618  ( 0.011025  0.033928 -0.018576)
 57:   1319.09   0.002169   10.96  0.000513  ( 0.019278 -0.011848 -0.001107)
 58:   1323.60   0.000662    3.34  0.000156  (-0.006222 -0.009954 -0.004262)
 59:   1411.59   0.000390    1.97  0.000086  (-0.006781  0.006228  0.001199)
 60:   1437.73   0.000037    0.19  0.000008  (-0.001087 -0.000115 -0.002632)
 61:   1438.94   0.000591    2.99  0.000128  ( 0.010262 -0.003400 -0.003356)
 62:   1440.90   0.000027    0.13  0.000006  ( 0.000538 -0.002081 -0.001059)
 63:   1442.65   0.018186   91.90  0.003934  ( 0.060110 -0.017894  0.000596)
 64:   1445.31   0.000859    4.34  0.000186  (-0.003775  0.001319 -0.013020)
 65:   1446.43   0.002690   13.60  0.000580  ( 0.007673 -0.021982 -0.006195)
 66:   1452.42   0.002338   11.82  0.000502  ( 0.008412 -0.014306  0.015065)
 67:   1471.80   0.004777   24.14  0.001013  ( 0.015760 -0.010379  0.025626)
 68:   1478.33   0.009398   47.49  0.001984  ( 0.044309 -0.003881  0.002348)
 69:   1500.52   0.004163   21.04  0.000866  ( 0.011618  0.026603  0.004815)
 70:   1514.20   0.013824   69.86  0.002849  (-0.045429  0.027908  0.002529)
 71:   1591.49   0.002655   13.42  0.000521  (-0.021931 -0.003696 -0.005089)
 72:   1636.88   0.005824   29.43  0.001110  ( 0.032801  0.001942  0.005528)
 73:   3053.61   0.004362   22.04  0.000446  (-0.010093  0.017618  0.005789)
 74:   3054.92   0.001863    9.42  0.000190  (-0.000279  0.012819 -0.005092)
 75:   3055.55   0.001313    6.63  0.000134  ( 0.010171  0.001038  0.005435)
 76:   3056.71   0.001162    5.87  0.000119  ( 0.004323 -0.009713 -0.002369)
 77:   3104.51   0.000050    0.25  0.000005  ( 0.001714 -0.001423  0.000254)
 78:   3113.81   0.004131   20.87  0.000414  (-0.001945  0.007724 -0.018722)
 79:   3137.73   0.001084    5.48  0.000108  (-0.009565  0.003379 -0.002226)
 80:   3139.08   0.001362    6.88  0.000135  ( 0.002795 -0.011102  0.002075)
 81:   3140.43   0.004412   22.29  0.000438  ( 0.013524 -0.008390  0.013605)
 82:   3142.56   0.005924   29.93  0.000588  ( 0.017118  0.015935  0.006422)
 83:   3143.83   0.001716    8.67  0.000170  (-0.004880 -0.010700 -0.005662)
 84:   3147.33   0.002100   10.61  0.000208  ( 0.010850  0.006738 -0.006715)
 85:   3150.84   0.002447   12.37  0.000242  (-0.007494  0.004149  0.013000)
 86:   3181.99   0.004580   23.14  0.000449  (-0.014040 -0.014623 -0.006180)
 87:   3186.56   0.000532    2.69  0.000052  (-0.006697  0.002505  0.001004)
 88:   3201.78   0.005762   29.12  0.000562  (-0.007676 -0.021400 -0.006689)
 89:   3217.37   0.004811   24.31  0.000467  ( 0.019379 -0.009412 -0.001579)

* The epsilon (eps) is given for a Dirac delta lineshape.
** The dipole moment derivative (T) already includes vibrational overlap.

The first frequency considered to be a vibration is 6
The total number of vibrations considered is 84


--------------------------
THERMOCHEMISTRY AT 298.15K
--------------------------

Temperature         ...   298.15 K
Pressure            ...     1.00 atm
Total Mass          ...   191.35 AMU
Quasi RRHO          ...     True
Cut-Off Frequency   ...     1.00 cm^-1

Throughout the following assumptions are being made:
  (1) The electronic state is orbitally nondegenerate
      but the spin degeneracy is treated
  (2) There are no thermally accessible electronically excited states
  (3) Hindered rotations indicated by low frequency modes are not
      treated as such but are treated as vibrations and this may
      cause some error
  (4) All equations used are the standard statistical mechanics
      equations for an ideal gas
  (5) All vibrations are strictly harmonic

freq.      30.18  E(vib)   ...       0.55 
freq.      38.99  E(vib)   ...       0.54 
freq.      70.35  E(vib)   ...       0.50 
freq.     119.53  E(vib)   ...       0.44 
freq.     136.55  E(vib)   ...       0.42 
freq.     146.02  E(vib)   ...       0.41 
freq.     160.60  E(vib)   ...       0.39 
freq.     166.03  E(vib)   ...       0.39 
freq.     178.54  E(vib)   ...       0.37 
freq.     187.11  E(vib)   ...       0.36 
freq.     210.17  E(vib)   ...       0.34 
freq.     218.11  E(vib)   ...       0.33 
freq.     227.36  E(vib)   ...       0.33 
freq.     265.54  E(vib)   ...       0.29 
freq.     292.20  E(vib)   ...       0.27 
freq.     339.13  E(vib)   ...       0.23 
freq.     370.95  E(vib)   ...       0.21 
freq.     417.90  E(vib)   ...       0.18 
freq.     453.34  E(vib)   ...       0.16 
freq.     541.88  E(vib)   ...       0.12 
freq.     547.86  E(vib)   ...       0.12 
freq.     606.03  E(vib)   ...       0.10 
freq.     626.40  E(vib)   ...       0.09 
freq.     662.61  E(vib)   ...       0.08 
freq.     687.41  E(vib)   ...       0.07 
freq.     696.91  E(vib)   ...       0.07 
freq.     703.96  E(vib)   ...       0.07 
freq.     711.60  E(vib)   ...       0.07 
freq.     733.84  E(vib)   ...       0.06 
freq.     749.05  E(vib)   ...       0.06 
freq.     766.77  E(vib)   ...       0.06 
freq.     768.18  E(vib)   ...       0.06 
freq.     772.98  E(vib)   ...       0.05 
freq.     855.42  E(vib)   ...       0.04 
freq.     855.87  E(vib)   ...       0.04 
freq.     857.73  E(vib)   ...       0.04 
freq.     869.72  E(vib)   ...       0.04 
freq.     874.90  E(vib)   ...       0.04 
freq.     963.81  E(vib)   ...       0.03 
freq.     997.92  E(vib)   ...       0.02 
freq.    1001.62  E(vib)   ...       0.02 
freq.    1062.31  E(vib)   ...       0.02 
freq.    1065.68  E(vib)   ...       0.02 
freq.    1138.75  E(vib)   ...       0.01 
freq.    1168.85  E(vib)   ...       0.01 
freq.    1185.31  E(vib)   ...       0.01 
freq.    1204.08  E(vib)   ...       0.01 
freq.    1233.99  E(vib)   ...       0.01 
freq.    1273.39  E(vib)   ...       0.01 
freq.    1280.59  E(vib)   ...       0.01 
freq.    1282.03  E(vib)   ...       0.01 
freq.    1319.09  E(vib)   ...       0.01 
freq.    1323.60  E(vib)   ...       0.01 
freq.    1411.59  E(vib)   ...       0.00 
freq.    1437.73  E(vib)   ...       0.00 
freq.    1438.94  E(vib)   ...       0.00 
freq.    1440.90  E(vib)   ...       0.00 
freq.    1442.65  E(vib)   ...       0.00 
freq.    1445.31  E(vib)   ...       0.00 
freq.    1446.43  E(vib)   ...       0.00 
freq.    1452.42  E(vib)   ...       0.00 
freq.    1471.80  E(vib)   ...       0.00 
freq.    1478.33  E(vib)   ...       0.00 
freq.    1500.52  E(vib)   ...       0.00 
freq.    1514.20  E(vib)   ...       0.00 
freq.    1591.49  E(vib)   ...       0.00 
freq.    1636.88  E(vib)   ...       0.00 
freq.    3053.61  E(vib)   ...       0.00 
freq.    3054.92  E(vib)   ...       0.00 
freq.    3055.55  E(vib)   ...       0.00 
freq.    3056.71  E(vib)   ...       0.00 
freq.    3104.51  E(vib)   ...       0.00 
freq.    3113.81  E(vib)   ...       0.00 
freq.    3137.73  E(vib)   ...       0.00 
freq.    3139.08  E(vib)   ...       0.00 
freq.    3140.43  E(vib)   ...       0.00 
freq.    3142.56  E(vib)   ...       0.00 
freq.    3143.83  E(vib)   ...       0.00 
freq.    3147.33  E(vib)   ...       0.00 
freq.    3150.84  E(vib)   ...       0.00 
freq.    3181.99  E(vib)   ...       0.00 
freq.    3186.56  E(vib)   ...       0.00 
freq.    3201.78  E(vib)   ...       0.00 
freq.    3217.37  E(vib)   ...       0.00 

------------
INNER ENERGY
------------

The inner energy is: U= E(el) + E(ZPE) + E(vib) + E(rot) + E(trans)
    E(el)   - is the total energy from the electronic structure calculation
              = E(kin-el) + E(nuc-el) + E(el-el) + E(nuc-nuc)
    E(ZPE)  - the the zero temperature vibrational energy from the frequency calculation
    E(vib)  - the the finite temperature correction to E(ZPE) due to population
              of excited vibrational states
    E(rot)  - is the rotational thermal energy
    E(trans)- is the translational thermal energy

Summary of contributions to the inner energy U:
Electronic energy                ...   -773.67526718 Eh
Zero point energy                ...      0.24913250 Eh     156.33 kcal/mol
Thermal vibrational correction   ...      0.01315235 Eh       8.25 kcal/mol
Thermal rotational correction    ...      0.00141627 Eh       0.89 kcal/mol
Thermal translational correction ...      0.00141627 Eh       0.89 kcal/mol
-----------------------------------------------------------------------
Total thermal energy                   -773.41014980 Eh


Summary of corrections to the electronic energy:
(perhaps to be used in another calculation)
Total thermal correction                  0.01598489 Eh      10.03 kcal/mol
Non-thermal (ZPE) correction              0.24913250 Eh     156.33 kcal/mol
-----------------------------------------------------------------------
Total correction                          0.26511739 Eh     166.36 kcal/mol


--------
ENTHALPY
--------

The enthalpy is H = U + kB*T
                kB is Boltzmann's constant
Total thermal energy              ...   -773.41014980 Eh 
Thermal Enthalpy correction       ...      0.00094421 Eh       0.59 kcal/mol
-----------------------------------------------------------------------
Total Enthalpy                    ...   -773.40920559 Eh


Note: Only C1 symmetry has been detected, increase convergence thresholds 
      if your molecule has a higher symmetry. Symmetry factor of 1.0 is   
      used for the rotational entropy correction. 
 

Note: Rotational entropy computed according to Herzberg 
Infrared and Raman Spectra, Chapter V,1, Van Nostrand Reinhold, 1945 
Point Group:  C1, Symmetry Number:   1  
Rotational constants in cm-1:     0.049481     0.012519     0.011257 

Vibrational entropy computed according to the QRRHO of S. Grimme
Chem.Eur.J. 2012 18 9955 using a reference frequency of 100.0 cm-1


-------
ENTROPY
-------

The entropy contributions are T*S = T*(S(el)+S(vib)+S(rot)+S(trans))
     S(el)   - electronic entropy
     S(vib)  - vibrational entropy
     S(rot)  - rotational entropy
     S(trans)- translational entropy
The entropies will be listed as multiplied by the temperature to get
units of energy

Electronic entropy                ...      0.00103729 Eh      0.65 kcal/mol
Vibrational entropy               ...      0.02321151 Eh     14.57 kcal/mol
Rotational entropy                ...      0.01511613 Eh      9.49 kcal/mol
Translational entropy             ...      0.01979031 Eh     12.42 kcal/mol
-----------------------------------------------------------------------
Final entropy term                ...      0.05915524 Eh     37.12 kcal/mol

In case the symmetry of your molecule has not been determined correctly
or in case you have a reason to use a different symmetry number we print 
out the resulting rotational entropy values for sn=1,12:

 non-linear molecules -----------------------------------
|  sn= 1 | S(rot)=       0.01511613 Eh      9.49 kcal/mol|
|  sn= 2 | S(rot)=       0.01446168 Eh      9.07 kcal/mol|
|  sn= 3 | S(rot)=       0.01407885 Eh      8.83 kcal/mol|
|  sn= 4 | S(rot)=       0.01380722 Eh      8.66 kcal/mol|
|  sn= 5 | S(rot)=       0.01359653 Eh      8.53 kcal/mol|
|  sn= 6 | S(rot)=       0.01342439 Eh      8.42 kcal/mol|
|  sn= 7 | S(rot)=       0.01327884 Eh      8.33 kcal/mol|
|  sn= 8 | S(rot)=       0.01315277 Eh      8.25 kcal/mol|
|  sn= 9 | S(rot)=       0.01304156 Eh      8.18 kcal/mol|
|  sn=10 | S(rot)=       0.01294208 Eh      8.12 kcal/mol|
|  sn=11 | S(rot)=       0.01285209 Eh      8.06 kcal/mol|
|  sn=12 | S(rot)=       0.01276993 Eh      8.01 kcal/mol|
 linear molecules ---------------------------------------
|  Dinfh | S(rot)=       0.00956210 Eh      6.00 kcal/mol|
|  Cinfv | S(rot)=       0.01021655 Eh      6.41 kcal/mol|
 --------------------------------------------------------


-------------------
GIBBS FREE ENERGY
-------------------

The Gibbs free energy is G = H - T*S

Total enthalpy                    ...   -773.40920559 Eh 
Total entropy correction          ...     -0.05915524 Eh    -37.12 kcal/mol
-----------------------------------------------------------------------
Final Gibbs free energy         ...   -773.46836083 Eh

For completeness - the Gibbs free energy minus the electronic energy
G-E(el)                           ...      0.20690636 Eh    129.84 kcal/mol


Maximum memory used throughout the entire PROP-calculation: 441.4 MB

--------------------------------
SUGGESTED CITATIONS FOR THIS RUN
--------------------------------

Below you find a list of papers that are relevant to this ORCA run
We neither can nor want to force you to cite these papers, but we appreciate if you do
You receive ORCA, which is the product of decades of hard work by many enthusiastic individuals, for free
The only thing we kindly ask in return is that you cite our papers,
We deeply appreciate it, if you show your appreciation for ORCA by not just citing the generic ORCA reference.

Please note that relegating all ORCA citations to the supporting information does *not* help us.
SI sections are not indexed - citations you put there will not count into any citation statistics
But we need these citations in order to attract the funding resources that allow us to do what we are doing

Therefore, if you are a happy ORCA user, please consider citing a few of the papers listed below in the main body of your paper

In addition to the list printed below, the program has created the file 32-T1-0.bibtex that contains the list in bibtex format
You can import this file easily into all common literature databanks and citation aid programs


List of essential papers. We consider these as the minimum necessary citations

  1. Neese,F.
     Software update: the ORCA program system, version 5.0
     WIRES Comput. Molec. Sci., 2022 12(1)e1606
     doi.org/10.1002/wcms.1606

List of papers to cite with high priority. The work reported in these papers was absolutely
necessary for this run to complete.
Our perspective: the developers of density functionals and basis sets usually get cited in chemistry papers
Good! But without the algorithms to do something with them, the functionals or basis sets would not do anything.
Hence, in our opinion, the algorithm design and method developments papers are equally worthy of getting cited

  1. Neese,F.
     An improvement of the resolution of the identity approximation for the formation of the Coulomb matrix
     J. Comp. Chem., 2003 24(14)1740-1747
     doi.org/10.1002/jcc.10318
  2. Neese,F.; Wennmohs,F.; Hansen,A.; Becker,U.
     Efficient, approximate and parallel Hartree-Fock and hybrid DFT calculations. A 'chain-of-spheres' algorithm for the Hartree-Fock exchange
     Chem. Phys., 2009 356(1-3)98-109
     doi.org/10.1016/j.chemphys.2008.10.036
  3. Bykov,D.; Petrenko,T.; Izsak,R.; Kossmann,S.; Becker,U.; Valeev,E.; Neese,F.
     Efficient implementation of the analytic second derivatives of Hartree-Fock and hybrid DFT energies: a detailed analysis of different approximations
     Molec. Phys., 2015 113 1961-1977
     doi.org/10.1080/00268976.2015.1025114
  4. Garcia-Rates,M.; Neese,F.
     Efficient implementation of the analytical second derivatives of hartree-fock and hybrid DFT energies within the framework of the conductor-like polarizable continuum model
     J. Comput. Chem., 2019 40 1816-1828
     doi.org/10.1002/jcc.25833
  5. Garcia-Rates,M.; Neese,F.
     Effect of the Solute Cavity on the Solvation Energy and its Derivatives within the Framework of the Gaussian Charge Scheme
     J. Comput. Chem., 2020 41 922-939
     doi.org/10.1002/jcc.26139
  6. Helmich-Paris,B.; de Souza,B.; Neese,F.; Izsák,R.
     An improved chain of spheres for exchange algorithm
     J. Chem. Phys., 2021 155 104109
     doi.org/doi: 10.1063/5.0058766.
  7. Neese,F.
     The SHARK Integral Generation and Digestion System
     J. Comp. Chem., 2022  1-16
     doi.org/10.1002/jcc.26942
  8. Grimme,S.; Antony,J.; Ehrlich,S.; Krieg,H.
     A consistent and accurate ab initio parametrization of density functional dispersion correction (DFT-D) for the 94 elements H-Pu
     J. Chem. Phys., 2010 132 154104
     doi.org/10.1063/1.3382344

List of suggested additional citations. These are papers that are important in the 'surrounding' of 
of this run, or papers that preceded the highly important papers. If you like your results we are grateful for a citation.

  1. Izsak,R.; Neese,F.
     An overlap fitted chain of spheres exchange method
     J. Chem. Phys., 2011 135 144105
     doi.org/10.1063/1.3646921
  2. Izsak,R.; Hansen,A.; Neese,F.
     The resolution of identity and chain of spheres approximations for the LPNO-CCSD singles Fock term
     Molec. Phys., 2012 110 2413-2417
     doi.org/10.1080/00268976.2012.687466
  3. Neese,F.
     The ORCA program system
     WIRES Comput. Molec. Sci., 2012 2(1)73-78
     doi.org/10.1002/wcms.81
  4. Izsak,R.; Neese,F.; Klopper,W.
     Robust fitting techniques in the chain of spheres approximation to the Fock exchange: The role of the complementary space
     J. Chem. Phys., 2013 139 
     doi.org/10.1063/1.4819264
  5. Neese,F.
     Software update: the ORCA program system, version 4.0
     WIRES Comput. Molec. Sci., 2018 8(1)1-6
     doi.org/10.1002/wcms.1327
  6. Neese,F.; Wennmohs,F.; Becker,U.; Riplinger,C.
     The ORCA quantum chemistry program package
     J. Chem. Phys., 2020 152 Art. No. L224108
     doi.org/10.1063/5.0004608

List of optional additional citations

  1. Neese,F.
     Approximate second-order SCF convergence for spin unrestricted wavefunctions
     Chem. Phys. Lett., 2000 325(1-3)93-98
     doi.org/10.1016/s0009-2614(00)00662-x

Timings for individual modules:

Sum of individual times          ...    14088.084 sec (= 234.801 min)
Startup calculation              ...      145.148 sec (=   2.419 min)   1.0 %
SCF iterations                   ...     6909.477 sec (= 115.158 min)  49.0 %
Property integrals               ...     1052.372 sec (=  17.540 min)   7.5 %
SCF Response                     ...     1889.002 sec (=  31.483 min)  13.4 %
Property calculations            ...     1119.052 sec (=  18.651 min)   7.9 %
SCF Gradient evaluation          ...     2972.031 sec (=  49.534 min)  21.1 %
Geometry relaxation              ...        1.002 sec (=   0.017 min)   0.0 %
                             ****ORCA TERMINATED NORMALLY****
TOTAL RUN TIME: 0 days 3 hours 55 minutes 49 seconds 154 msec
